s 0.058808523 _5_ RTR  --- 0 MSVR 0 [0 0 0 0] ------- [5:255 -1:-1 3 0] 
s 0.080760398 _4_ RTR  --- 1 MSVR 0 [0 0 0 0] ------- [4:255 -1:-1 3 0] 
r 0.081885065 _3_ RTR  --- 1 MSVR 0 [0 ffffffff 4 800] ------- [4:255 -1:-1 3 0] 
s 0.322740753 _3_ RTR  --- 2 MSVR 0 [0 0 0 0] ------- [3:255 -1:-1 3 0] 
r 0.323625419 _4_ RTR  --- 2 MSVR 0 [0 ffffffff 3 800] ------- [3:255 -1:-1 3 0] 
s 0.373673513 _2_ RTR  --- 3 MSVR 0 [0 0 0 0] ------- [2:255 -1:-1 3 0] 
r 0.374398180 _1_ RTR  --- 3 MSVR 0 [0 ffffffff 2 800] ------- [2:255 -1:-1 3 0] 
s 0.409537785 _0_ RTR  --- 4 MSVR 0 [0 0 0 0] ------- [0:255 -1:-1 3 0] 
r 0.410342385 _1_ RTR  --- 4 MSVR 0 [0 ffffffff 0 800] ------- [0:255 -1:-1 3 0] 
s 0.917047461 _1_ RTR  --- 5 MSVR 0 [0 0 0 0] ------- [1:255 -1:-1 3 0] 
r 0.917872061 _0_ RTR  --- 5 MSVR 0 [0 ffffffff 1 800] ------- [1:255 -1:-1 3 0] 
r 0.917872128 _2_ RTR  --- 5 MSVR 0 [0 ffffffff 1 800] ------- [1:255 -1:-1 3 0] 
s 1.161690148 _4_ RTR  --- 6 MSVR 0 [0 0 0 0] ------- [4:255 -1:-1 3 0] 
r 1.162294815 _3_ RTR  --- 6 MSVR 0 [0 ffffffff 4 800] ------- [4:255 -1:-1 3 0] 
s 1.268861431 _5_ RTR  --- 7 MSVR 0 [0 0 0 0] ------- [5:255 -1:-1 3 0] 
s 1.340051942 _3_ RTR  --- 8 MSVR 0 [0 0 0 0] ------- [3:255 -1:-1 3 0] 
r 1.340856608 _4_ RTR  --- 8 MSVR 0 [0 ffffffff 3 800] ------- [3:255 -1:-1 3 0] 
s 1.451149842 _0_ RTR  --- 9 MSVR 0 [0 0 0 0] ------- [0:255 -1:-1 3 0] 
r 1.452194442 _1_ RTR  --- 9 MSVR 0 [0 ffffffff 0 800] ------- [0:255 -1:-1 3 0] 
s 1.532287030 _2_ RTR  --- 10 MSVR 0 [0 0 0 0] ------- [2:255 -1:-1 3 0] 
r 1.533171697 _1_ RTR  --- 10 MSVR 0 [0 ffffffff 2 800] ------- [2:255 -1:-1 3 0] 
s 1.953886408 _1_ RTR  --- 11 MSVR 0 [0 0 0 0] ------- [1:255 -1:-1 3 0] 
r 1.954671008 _0_ RTR  --- 11 MSVR 0 [0 ffffffff 1 800] ------- [1:255 -1:-1 3 0] 
r 1.954671074 _2_ RTR  --- 11 MSVR 0 [0 ffffffff 1 800] ------- [1:255 -1:-1 3 0] 
s 2.243026354 _4_ RTR  --- 12 MSVR 0 [0 0 0 0] ------- [4:255 -1:-1 3 0] 
r 2.243831020 _3_ RTR  --- 12 MSVR 0 [0 ffffffff 4 800] ------- [4:255 -1:-1 3 0] 
s 2.340511263 _3_ RTR  --- 13 MSVR 0 [0 0 0 0] ------- [3:255 -1:-1 3 0] 
r 2.341255930 _4_ RTR  --- 13 MSVR 0 [0 ffffffff 3 800] ------- [3:255 -1:-1 3 0] 
s 2.399097171 _5_ RTR  --- 14 MSVR 0 [0 0 0 0] ------- [5:255 -1:-1 3 0] 
s 2.657104142 _0_ RTR  --- 15 MSVR 0 [0 0 0 0] ------- [0:255 -1:-1 3 0] 
r 2.658028742 _1_ RTR  --- 15 MSVR 0 [0 ffffffff 0 800] ------- [0:255 -1:-1 3 0] 
s 2.745473280 _2_ RTR  --- 16 MSVR 0 [0 0 0 0] ------- [2:255 -1:-1 3 0] 
r 2.746337947 _1_ RTR  --- 16 MSVR 0 [0 ffffffff 2 800] ------- [2:255 -1:-1 3 0] 
s 3.176925920 _1_ RTR  --- 17 MSVR 0 [0 0 0 0] ------- [1:255 -1:-1 3 0] 
r 3.177630520 _0_ RTR  --- 17 MSVR 0 [0 ffffffff 1 800] ------- [1:255 -1:-1 3 0] 
r 3.177630586 _2_ RTR  --- 17 MSVR 0 [0 ffffffff 1 800] ------- [1:255 -1:-1 3 0] 
s 3.289629550 _4_ RTR  --- 18 MSVR 0 [0 0 0 0] ------- [4:255 -1:-1 3 0] 
r 3.290474217 _3_ RTR  --- 18 MSVR 0 [0 ffffffff 4 800] ------- [4:255 -1:-1 3 0] 
s 3.348158138 _3_ RTR  --- 19 MSVR 0 [0 0 0 0] ------- [3:255 -1:-1 3 0] 
r 3.348822805 _4_ RTR  --- 19 MSVR 0 [0 ffffffff 3 800] ------- [3:255 -1:-1 3 0] 
s 3.477786357 _5_ RTR  --- 20 MSVR 0 [0 0 0 0] ------- [5:255 -1:-1 3 0] 
s 3.747006397 _2_ RTR  --- 21 MSVR 0 [0 0 0 0] ------- [2:255 -1:-1 3 0] 
r 3.748151063 _1_ RTR  --- 21 MSVR 0 [0 ffffffff 2 800] ------- [2:255 -1:-1 3 0] 
s 3.845717760 _0_ RTR  --- 22 MSVR 0 [0 0 0 0] ------- [0:255 -1:-1 3 0] 
r 3.846402360 _1_ RTR  --- 22 MSVR 0 [0 ffffffff 0 800] ------- [0:255 -1:-1 3 0] 
s 4.322600683 _4_ RTR  --- 23 MSVR 0 [0 0 0 0] ------- [4:255 -1:-1 3 0] 
r 4.323665350 _3_ RTR  --- 23 MSVR 0 [0 ffffffff 4 800] ------- [4:255 -1:-1 3 0] 
s 4.393415975 _1_ RTR  --- 24 MSVR 0 [0 0 0 0] ------- [1:255 -1:-1 3 0] 
r 4.394160575 _0_ RTR  --- 24 MSVR 0 [0 ffffffff 1 800] ------- [1:255 -1:-1 3 0] 
r 4.394160641 _2_ RTR  --- 24 MSVR 0 [0 ffffffff 1 800] ------- [1:255 -1:-1 3 0] 
s 4.503746652 _3_ RTR  --- 25 MSVR 0 [0 0 0 0] ------- [3:255 -1:-1 3 0] 
r 4.504791319 _4_ RTR  --- 25 MSVR 0 [0 ffffffff 3 800] ------- [3:255 -1:-1 3 0] 
s 4.649424693 _5_ RTR  --- 26 MSVR 0 [0 0 0 0] ------- [5:255 -1:-1 3 0] 
s 4.930872807 _2_ RTR  --- 27 MSVR 0 [0 0 0 0] ------- [2:255 -1:-1 3 0] 
r 4.931597474 _1_ RTR  --- 27 MSVR 0 [0 ffffffff 2 800] ------- [2:255 -1:-1 3 0] 
s 4.980353009 _0_ RTR  --- 28 MSVR 0 [0 0 0 0] ------- [0:255 -1:-1 3 0] 
r 4.980997609 _1_ RTR  --- 28 MSVR 0 [0 ffffffff 0 800] ------- [0:255 -1:-1 3 0] 
s 5.436183055 _1_ RTR  --- 29 MSVR 0 [0 0 0 0] ------- [1:255 -1:-1 3 0] 
s 5.436375011 _4_ RTR  --- 30 MSVR 0 [0 0 0 0] ------- [4:255 -1:-1 3 0] 
r 5.436747655 _0_ RTR  --- 29 MSVR 0 [0 ffffffff 1 800] ------- [1:255 -1:-1 3 0] 
r 5.436747722 _2_ RTR  --- 29 MSVR 0 [0 ffffffff 1 800] ------- [1:255 -1:-1 3 0] 
r 5.437179678 _3_ RTR  --- 30 MSVR 0 [0 ffffffff 4 800] ------- [4:255 -1:-1 3 0] 
s 5.516141848 _3_ RTR  --- 31 MSVR 0 [0 0 0 0] ------- [3:255 -1:-1 3 0] 
r 5.516726515 _4_ RTR  --- 31 MSVR 0 [0 ffffffff 3 800] ------- [3:255 -1:-1 3 0] 
s 5.762033763 _5_ RTR  --- 32 MSVR 0 [0 0 0 0] ------- [5:255 -1:-1 3 0] 
s 6.047771125 _0_ RTR  --- 33 MSVR 0 [0 0 0 0] ------- [0:255 -1:-1 3 0] 
r 6.048635725 _1_ RTR  --- 33 MSVR 0 [0 ffffffff 0 800] ------- [0:255 -1:-1 3 0] 
s 6.066394254 _2_ RTR  --- 34 MSVR 0 [0 0 0 0] ------- [2:255 -1:-1 3 0] 
r 6.067418921 _1_ RTR  --- 34 MSVR 0 [0 ffffffff 2 800] ------- [2:255 -1:-1 3 0] 
s 6.522343904 _4_ RTR  --- 35 MSVR 0 [0 0 0 0] ------- [4:255 -1:-1 3 0] 
r 6.523108570 _3_ RTR  --- 35 MSVR 0 [0 ffffffff 4 800] ------- [4:255 -1:-1 3 0] 
s 6.579418109 _1_ RTR  --- 36 MSVR 0 [0 0 0 0] ------- [1:255 -1:-1 3 0] 
r 6.580062709 _0_ RTR  --- 36 MSVR 0 [0 ffffffff 1 800] ------- [1:255 -1:-1 3 0] 
r 6.580062776 _2_ RTR  --- 36 MSVR 0 [0 ffffffff 1 800] ------- [1:255 -1:-1 3 0] 
s 6.652512159 _3_ RTR  --- 37 MSVR 0 [0 0 0 0] ------- [3:255 -1:-1 3 0] 
r 6.653276825 _4_ RTR  --- 37 MSVR 0 [0 ffffffff 3 800] ------- [3:255 -1:-1 3 0] 
s 6.982935610 _5_ RTR  --- 38 MSVR 0 [0 0 0 0] ------- [5:255 -1:-1 3 0] 
s 7.062993090 _0_ RTR  --- 39 MSVR 0 [0 0 0 0] ------- [0:255 -1:-1 3 0] 
r 7.063677690 _1_ RTR  --- 39 MSVR 0 [0 ffffffff 0 800] ------- [0:255 -1:-1 3 0] 
s 7.080316325 _2_ RTR  --- 40 MSVR 0 [0 0 0 0] ------- [2:255 -1:-1 3 0] 
r 7.081460991 _1_ RTR  --- 40 MSVR 0 [0 ffffffff 2 800] ------- [2:255 -1:-1 3 0] 
s 7.630466408 _1_ RTR  --- 41 MSVR 0 [0 0 0 0] ------- [1:255 -1:-1 3 0] 
r 7.631631008 _0_ RTR  --- 41 MSVR 0 [0 ffffffff 1 800] ------- [1:255 -1:-1 3 0] 
r 7.631631074 _2_ RTR  --- 41 MSVR 0 [0 ffffffff 1 800] ------- [1:255 -1:-1 3 0] 
s 7.654927538 _4_ RTR  --- 42 MSVR 0 [0 0 0 0] ------- [4:255 -1:-1 3 0] 
r 7.656032205 _3_ RTR  --- 42 MSVR 0 [0 ffffffff 4 800] ------- [4:255 -1:-1 3 0] 
s 7.724178528 _3_ RTR  --- 43 MSVR 0 [0 0 0 0] ------- [3:255 -1:-1 3 0] 
r 7.725043194 _4_ RTR  --- 43 MSVR 0 [0 ffffffff 3 800] ------- [3:255 -1:-1 3 0] 
s 8.117830061 _5_ RTR  --- 44 MSVR 0 [0 0 0 0] ------- [5:255 -1:-1 3 0] 
s 8.236868543 _2_ RTR  --- 45 MSVR 0 [0 0 0 0] ------- [2:255 -1:-1 3 0] 
r 8.238013210 _1_ RTR  --- 45 MSVR 0 [0 ffffffff 2 800] ------- [2:255 -1:-1 3 0] 
s 8.266350271 _0_ RTR  --- 46 MSVR 0 [0 0 0 0] ------- [0:255 -1:-1 3 0] 
r 8.267094871 _1_ RTR  --- 46 MSVR 0 [0 ffffffff 0 800] ------- [0:255 -1:-1 3 0] 
s 8.808422709 _4_ RTR  --- 47 MSVR 0 [0 0 0 0] ------- [4:255 -1:-1 3 0] 
r 8.809427375 _3_ RTR  --- 47 MSVR 0 [0 ffffffff 4 800] ------- [4:255 -1:-1 3 0] 
s 8.820028784 _1_ RTR  --- 48 MSVR 0 [0 0 0 0] ------- [1:255 -1:-1 3 0] 
r 8.820713384 _0_ RTR  --- 48 MSVR 0 [0 ffffffff 1 800] ------- [1:255 -1:-1 3 0] 
r 8.820713450 _2_ RTR  --- 48 MSVR 0 [0 ffffffff 1 800] ------- [1:255 -1:-1 3 0] 
s 8.931505835 _3_ RTR  --- 49 MSVR 0 [0 0 0 0] ------- [3:255 -1:-1 3 0] 
r 8.932290501 _4_ RTR  --- 49 MSVR 0 [0 ffffffff 3 800] ------- [3:255 -1:-1 3 0] 
s 9.291436256 _5_ RTR  --- 50 MSVR 0 [0 0 0 0] ------- [5:255 -1:-1 3 0] 
s 9.380469343 _0_ RTR  --- 51 MSVR 0 [0 0 0 0] ------- [0:255 -1:-1 3 0] 
r 9.381353943 _1_ RTR  --- 51 MSVR 0 [0 ffffffff 0 800] ------- [0:255 -1:-1 3 0] 
s 9.401054718 _2_ RTR  --- 52 MSVR 0 [0 0 0 0] ------- [2:255 -1:-1 3 0] 
r 9.402119385 _1_ RTR  --- 52 MSVR 0 [0 ffffffff 2 800] 