s 0.058808523 _5_ RTR  --- 0 MSVR 0 [0 0 0 0] ------- [5:255 -1:-1 32 0] 
r 0.059833189 _4_ RTR  --- 0 MSVR 0 [0 ffffffff 5 800] ------- [5:255 -1:-1 32 0] 
s 0.080760398 _4_ RTR  --- 1 MSVR 0 [0 0 0 0] ------- [4:255 -1:-1 32 0] 
r 0.081885065 _3_ RTR  --- 1 MSVR 0 [0 ffffffff 4 800] ------- [4:255 -1:-1 32 0] 
r 0.081885065 _5_ RTR  --- 1 MSVR 0 [0 ffffffff 4 800] ------- [4:255 -1:-1 32 0] 
s 0.322740753 _3_ RTR  --- 2 MSVR 0 [0 0 0 0] ------- [3:255 -1:-1 32 0] 
r 0.323625419 _2_ RTR  --- 2 MSVR 0 [0 ffffffff 3 800] ------- [3:255 -1:-1 32 0] 
r 0.323625419 _4_ RTR  --- 2 MSVR 0 [0 ffffffff 3 800] ------- [3:255 -1:-1 32 0] 
s 0.373673513 _2_ RTR  --- 3 MSVR 0 [0 0 0 0] ------- [2:255 -1:-1 32 0] 
r 0.374398180 _1_ RTR  --- 3 MSVR 0 [0 ffffffff 2 800] ------- [2:255 -1:-1 32 0] 
r 0.374398180 _3_ RTR  --- 3 MSVR 0 [0 ffffffff 2 800] ------- [2:255 -1:-1 32 0] 
s 0.409537785 _0_ RTR  --- 4 MSVR 0 [0 0 0 0] ------- [0:255 -1:-1 32 0] 
r 0.410342385 _1_ RTR  --- 4 MSVR 0 [0 ffffffff 0 800] ------- [0:255 -1:-1 32 0] 
s 0.917047461 _1_ RTR  --- 5 MSVR 0 [0 0 0 0] ------- [1:255 -1:-1 32 0] 
r 0.917872061 _0_ RTR  --- 5 MSVR 0 [0 ffffffff 1 800] ------- [1:255 -1:-1 32 0] 
r 0.917872128 _2_ RTR  --- 5 MSVR 0 [0 ffffffff 1 800] ------- [1:255 -1:-1 32 0] 
s 1.161690148 _4_ RTR  --- 6 MSVR 0 [0 0 0 0] ------- [4:255 -1:-1 32 0] 
r 1.162294815 _3_ RTR  --- 6 MSVR 0 [0 ffffffff 4 800] ------- [4:255 -1:-1 32 0] 
r 1.162294815 _5_ RTR  --- 6 MSVR 0 [0 ffffffff 4 800] ------- [4:255 -1:-1 32 0] 
s 1.268861431 _5_ RTR  --- 7 MSVR 0 [0 0 0 0] ------- [5:255 -1:-1 32 0] 
r 1.269586097 _4_ RTR  --- 7 MSVR 0 [0 ffffffff 5 800] ------- [5:255 -1:-1 32 0] 
s 1.340051942 _3_ RTR  --- 8 MSVR 0 [0 0 0 0] ------- [3:255 -1:-1 32 0] 
r 1.340856608 _2_ RTR  --- 8 MSVR 0 [0 ffffffff 3 800] ------- [3:255 -1:-1 32 0] 
r 1.340856608 _4_ RTR  --- 8 MSVR 0 [0 ffffffff 3 800] ------- [3:255 -1:-1 32 0] 
s 1.451149842 _0_ RTR  --- 9 MSVR 0 [0 0 0 0] ------- [0:255 -1:-1 32 0] 
r 1.452194442 _1_ RTR  --- 9 MSVR 0 [0 ffffffff 0 800] ------- [0:255 -1:-1 32 0] 
s 1.532287030 _2_ RTR  --- 10 MSVR 0 [0 0 0 0] ------- [2:255 -1:-1 32 0] 
r 1.533171697 _1_ RTR  --- 10 MSVR 0 [0 ffffffff 2 800] ------- [2:255 -1:-1 32 0] 
r 1.533171697 _3_ RTR  --- 10 MSVR 0 [0 ffffffff 2 800] ------- [2:255 -1:-1 32 0] 
s 1.953886408 _1_ RTR  --- 11 MSVR 0 [0 0 0 0] ------- [1:255 -1:-1 32 0] 
r 1.954671008 _0_ RTR  --- 11 MSVR 0 [0 ffffffff 1 800] ------- [1:255 -1:-1 32 0] 
r 1.954671074 _2_ RTR  --- 11 MSVR 0 [0 ffffffff 1 800] ------- [1:255 -1:-1 32 0] 
s 2.243026354 _4_ RTR  --- 12 MSVR 0 [0 0 0 0] ------- [4:255 -1:-1 32 0] 
r 2.243831020 _3_ RTR  --- 12 MSVR 0 [0 ffffffff 4 800] ------- [4:255 -1:-1 32 0] 
r 2.243831020 _5_ RTR  --- 12 MSVR 0 [0 ffffffff 4 800] ------- [4:255 -1:-1 32 0] 
s 2.340511263 _3_ RTR  --- 13 MSVR 0 [0 0 0 0] ------- [3:255 -1:-1 32 0] 
r 2.341255930 _2_ RTR  --- 13 MSVR 0 [0 ffffffff 3 800] ------- [3:255 -1:-1 32 0] 
r 2.341255930 _4_ RTR  --- 13 MSVR 0 [0 ffffffff 3 800] ------- [3:255 -1:-1 32 0] 
s 2.399097171 _5_ RTR  --- 14 MSVR 0 [0 0 0 0] ------- [5:255 -1:-1 32 0] 
r 2.400061838 _4_ RTR  --- 14 MSVR 0 [0 ffffffff 5 800] ------- [5:255 -1:-1 32 0] 
s 2.657104142 _0_ RTR  --- 15 MSVR 0 [0 0 0 0] ------- [0:255 -1:-1 32 0] 
r 2.658028742 _1_ RTR  --- 15 MSVR 0 [0 ffffffff 0 800] ------- [0:255 -1:-1 32 0] 
s 2.745473280 _2_ RTR  --- 16 MSVR 0 [0 0 0 0] ------- [2:255 -1:-1 32 0] 
r 2.746337947 _1_ RTR  --- 16 MSVR 0 [0 ffffffff 2 800] ------- [2:255 -1:-1 32 0] 
r 2.746337947 _3_ RTR  --- 16 MSVR 0 [0 ffffffff 2 800] ------- [2:255 -1:-1 32 0] 
s 3.176925920 _1_ RTR  --- 17 MSVR 0 [0 0 0 0] ------- [1:255 -1:-1 32 0] 
r 3.177630520 _0_ RTR  --- 17 MSVR 0 [0 ffffffff 1 800] ------- [1:255 -1:-1 32 0] 
r 3.177630586 _2_ RTR  --- 17 MSVR 0 [0 ffffffff 1 800] ------- [1:255 -1:-1 32 0] 
s 3.289629550 _4_ RTR  --- 18 MSVR 0 [0 0 0 0] ------- [4:255 -1:-1 32 0] 
r 3.290474217 _3_ RTR  --- 18 MSVR 0 [0 ffffffff 4 800] ------- [4:255 -1:-1 32 0] 
r 3.290474217 _5_ RTR  --- 18 MSVR 0 [0 ffffffff 4 800] ------- [4:255 -1:-1 32 0] 
s 3.348158138 _3_ RTR  --- 19 MSVR 0 [0 0 0 0] ------- [3:255 -1:-1 32 0] 
r 3.348822805 _2_ RTR  --- 19 MSVR 0 [0 ffffffff 3 800] ------- [3:255 -1:-1 32 0] 
r 3.348822805 _4_ RTR  --- 19 MSVR 0 [0 ffffffff 3 800] ------- [3:255 -1:-1 32 0] 
s 3.477786357 _5_ RTR  --- 20 MSVR 0 [0 0 0 0] ------- [5:255 -1:-1 32 0] 
r 3.478571024 _4_ RTR  --- 20 MSVR 0 [0 ffffffff 5 800] ------- [5:255 -1:-1 32 0] 
s 3.747006397 _2_ RTR  --- 21 MSVR 0 [0 0 0 0] ------- [2:255 -1:-1 32 0] 
r 3.748151063 _1_ RTR  --- 21 MSVR 0 [0 ffffffff 2 800] ------- [2:255 -1:-1 32 0] 
r 3.748151063 _3_ RTR  --- 21 MSVR 0 [0 ffffffff 2 800] ------- [2:255 -1:-1 32 0] 
s 3.845717760 _0_ RTR  --- 22 MSVR 0 [0 0 0 0] ------- [0:255 -1:-1 32 0] 
r 3.846402360 _1_ RTR  --- 22 MSVR 0 [0 ffffffff 0 800] ------- [0:255 -1:-1 32 0] 
s 4.322600683 _4_ RTR  --- 23 MSVR 0 [0 0 0 0] ------- [4:255 -1:-1 32 0] 
r 4.323665350 _3_ RTR  --- 23 MSVR 0 [0 ffffffff 4 800] ------- [4:255 -1:-1 32 0] 
r 4.323665350 _5_ RTR  --- 23 MSVR 0 [0 ffffffff 4 800] ------- [4:255 -1:-1 32 0] 
s 4.393415975 _1_ RTR  --- 24 MSVR 0 [0 0 0 0] ------- [1:255 -1:-1 32 0] 
r 4.394160575 _0_ RTR  --- 24 MSVR 0 [0 ffffffff 1 800] ------- [1:255 -1:-1 32 0] 
r 4.394160641 _2_ RTR  --- 24 MSVR 0 [0 ffffffff 1 800] ------- [1:255 -1:-1 32 0] 
s 4.503746652 _3_ RTR  --- 25 MSVR 0 [0 0 0 0] ------- [3:255 -1:-1 32 0] 
r 4.504791319 _2_ RTR  --- 25 MSVR 0 [0 ffffffff 3 800] ------- [3:255 -1:-1 32 0] 
r 4.504791319 _4_ RTR  --- 25 MSVR 0 [0 ffffffff 3 800] ------- [3:255 -1:-1 32 0] 
s 4.649424693 _5_ RTR  --- 26 MSVR 0 [0 0 0 0] ------- [5:255 -1:-1 32 0] 
r 4.650209359 _4_ RTR  --- 26 MSVR 0 [0 ffffffff 5 800] ------- [5:255 -1:-1 32 0] 
s 4.930872807 _2_ RTR  --- 27 MSVR 0 [0 0 0 0] ------- [2:255 -1:-1 32 0] 
r 4.931597474 _1_ RTR  --- 27 MSVR 0 [0 ffffffff 2 800] ------- [2:255 -1:-1 32 0] 
r 4.931597474 _3_ RTR  --- 27 MSVR 0 [0 ffffffff 2 800] ------- [2:255 -1:-1 32 0] 
s 4.980353009 _0_ RTR  --- 28 MSVR 0 [0 0 0 0] ------- [0:255 -1:-1 32 0] 
r 4.980997609 _1_ RTR  --- 28 MSVR 0 [0 ffffffff 0 800] ------- [0:255 -1:-1 32 0] 
s 5.436183055 _1_ RTR  --- 29 MSVR 0 [0 0 0 0] ------- [1:255 -1:-1 32 0] 
s 5.436375011 _4_ RTR  --- 30 MSVR 0 [0 0 0 0] ------- [4:255 -1:-1 32 0] 
r 5.436747655 _0_ RTR  --- 29 MSVR 0 [0 ffffffff 1 800] ------- [1:255 -1:-1 32 0] 
r 5.436747722 _2_ RTR  --- 29 MSVR 0 [0 ffffffff 1 800] ------- [1:255 -1:-1 32 0] 
r 5.437179678 _5_ RTR  --- 30 MSVR 0 [0 ffffffff 4 800] ------- [4:255 -1:-1 32 0] 
s 5.516141848 _3_ RTR  --- 31 MSVR 0 [0 0 0 0] ------- [3:255 -1:-1 32 0] 
r 5.516726515 _2_ RTR  --- 31 MSVR 0 [0 ffffffff 3 800] ------- [3:255 -1:-1 32 0] 
r 5.516726515 _4_ RTR  --- 31 MSVR 0 [0 ffffffff 3 800] ------- [3:255 -1:-1 32 0] 
s 5.762033763 _5_ RTR  --- 32 MSVR 0 [0 0 0 0] ------- [5:255 -1:-1 32 0] 
r 5.762838429 _4_ RTR  --- 32 MSVR 0 [0 ffffffff 5 800] ------- [5:255 -1:-1 32 0] 
s 6.047771125 _0_ RTR  --- 33 MSVR 0 [0 0 0 0] ------- [0:255 -1:-1 32 0] 
r 6.048635725 _1_ RTR  --- 33 MSVR 0 [0 ffffffff 0 800] ------- [0:255 -1:-1 32 0] 
s 6.066394254 _2_ RTR  --- 34 MSVR 0 [0 0 0 0] ------- [2:255 -1:-1 32 0] 
r 6.067418921 _1_ RTR  --- 34 MSVR 0 [0 ffffffff 2 800] ------- [2:255 -1:-1 32 0] 
r 6.067418921 _3_ RTR  --- 34 MSVR 0 [0 ffffffff 2 800] ------- [2:255 -1:-1 32 0] 
s 6.522343904 _4_ RTR  --- 35 MSVR 0 [0 0 0 0] ------- [4:255 -1:-1 32 0] 
r 6.523108570 _3_ RTR  --- 35 MSVR 0 [0 ffffffff 4 800] ------- [4:255 -1:-1 32 0] 
r 6.523108570 _5_ RTR  --- 35 MSVR 0 [0 ffffffff 4 800] ------- [4:255 -1:-1 32 0] 
s 6.579418109 _1_ RTR  --- 36 MSVR 0 [0 0 0 0] ------- [1:255 -1:-1 32 0] 
r 6.580062709 _0_ RTR  --- 36 MSVR 0 [0 ffffffff 1 800] ------- [1:255 -1:-1 32 0] 
r 6.580062776 _2_ RTR  --- 36 MSVR 0 [0 ffffffff 1 800] ------- [1:255 -1:-1 32 0] 
s 6.652512159 _3_ RTR  --- 37 MSVR 0 [0 0 0 0] ------- [3:255 -1:-1 32 0] 
r 6.653276825 _2_ RTR  --- 37 MSVR 0 [0 ffffffff 3 800] ------- [3:255 -1:-1 32 0] 
r 6.653276825 _4_ RTR  --- 37 MSVR 0 [0 ffffffff 3 800] ------- [3:255 -1:-1 32 0] 
s 6.982935610 _5_ RTR  --- 38 MSVR 0 [0 0 0 0] ------- [5:255 -1:-1 32 0] 
r 6.983840276 _4_ RTR  --- 38 MSVR 0 [0 ffffffff 5 800] ------- [5:255 -1:-1 32 0] 
s 7.062993090 _0_ RTR  --- 39 MSVR 0 [0 0 0 0] ------- [0:255 -1:-1 32 0] 
r 7.063677690 _1_ RTR  --- 39 MSVR 0 [0 ffffffff 0 800] ------- [0:255 -1:-1 32 0] 
s 7.080316325 _2_ RTR  --- 40 MSVR 0 [0 0 0 0] ------- [2:255 -1:-1 32 0] 
r 7.081460991 _1_ RTR  --- 40 MSVR 0 [0 ffffffff 2 800] ------- [2:255 -1:-1 32 0] 
r 7.081460991 _3_ RTR  --- 40 MSVR 0 [0 ffffffff 2 800] ------- [2:255 -1:-1 32 0] 
s 7.630466408 _1_ RTR  --- 41 MSVR 0 [0 0 0 0] ------- [1:255 -1:-1 32 0] 
r 7.631631008 _0_ RTR  --- 41 MSVR 0 [0 ffffffff 1 800] ------- [1:255 -1:-1 32 0] 
r 7.631631074 _2_ RTR  --- 41 MSVR 0 [0 ffffffff 1 800] ------- [1:255 -1:-1 32 0] 
s 7.654927538 _4_ RTR  --- 42 MSVR 0 [0 0 0 0] ------- [4:255 -1:-1 32 0] 
r 7.656032205 _3_ RTR  --- 42 MSVR 0 [0 ffffffff 4 800] ------- [4:255 -1:-1 32 0] 
r 7.656032205 _5_ RTR  --- 42 MSVR 0 [0 ffffffff 4 800] ------- [4:255 -1:-1 32 0] 
s 7.724178528 _3_ RTR  --- 43 MSVR 0 [0 0 0 0] ------- [3:255 -1:-1 32 0] 
r 7.725043194 _2_ RTR  --- 43 MSVR 0 [0 ffffffff 3 800] ------- [3:255 -1:-1 32 0] 
r 7.725043194 _4_ RTR  --- 43 MSVR 0 [0 ffffffff 3 800] ------- [3:255 -1:-1 32 0] 
s 8.117830061 _5_ RTR  --- 44 MSVR 0 [0 0 0 0] ------- [5:255 -1:-1 32 0] 
r 8.118734728 _4_ RTR  --- 44 MSVR 0 [0 ffffffff 5 800] ------- [5:255 -1:-1 32 0] 
s 8.236868543 _2_ RTR  --- 45 MSVR 0 [0 0 0 0] ------- [2:255 -1:-1 32 0] 
r 8.238013210 _1_ RTR  --- 45 MSVR 0 [0 ffffffff 2 800] ------- [2:255 -1:-1 32 0] 
r 8.238013210 _3_ RTR  --- 45 MSVR 0 [0 ffffffff 2 800] ------- [2:255 -1:-1 32 0] 
s 8.266350271 _0_ RTR  --- 46 MSVR 0 [0 0 0 0] ------- [0:255 -1:-1 32 0] 
r 8.267094871 _1_ RTR  --- 46 MSVR 0 [0 ffffffff 0 800] ------- [0:255 -1:-1 32 0] 
s 8.808422709 _4_ RTR  --- 47 MSVR 0 [0 0 0 0] ------- [4:255 -1:-1 32 0] 
r 8.809427375 _3_ RTR  --- 47 MSVR 0 [0 ffffffff 4 800] ------- [4:255 -1:-1 32 0] 
r 8.809427375 _5_ RTR  --- 47 MSVR 0 [0 ffffffff 4 800] ------- [4:255 -1:-1 32 0] 
s 8.820028784 _1_ RTR  --- 48 MSVR 0 [0 0 0 0] ------- [1:255 -1:-1 32 0] 
r 8.820713384 _0_ RTR  --- 48 MSVR 0 [0 ffffffff 1 800] ------- [1:255 -1:-1 32 0] 
r 8.820713450 _2_ RTR  --- 48 MSVR 0 [0 ffffffff 1 800] ------- [1:255 -1:-1 32 0] 
s 8.931505835 _3_ RTR  --- 49 MSVR 0 [0 0 0 0] ------- [3:255 -1:-1 32 0] 
r 8.932290501 _2_ RTR  --- 49 MSVR 0 [0 ffffffff 3 800] ------- [3:255 -1:-1 32 0] 
r 8.932290501 _4_ RTR  --- 49 MSVR 0 [0 ffffffff 3 800] ------- [3:255 -1:-1 32 0] 
s 9.291436256 _5_ RTR  --- 50 MSVR 0 [0 0 0 0] ------- [5:255 -1:-1 32 0] 
r 9.292140923 _4_ RTR  --- 50 MSVR 0 [0 ffffffff 5 800] ------- [5:255 -1:-1 32 0] 
s 9.380469343 _0_ RTR  --- 51 MSVR 0 [0 0 0 0] ------- [0:255 -1:-1 32 0] 
r 9.381353943 _1_ RTR  --- 51 MSVR 0 [0 ffffffff 0 800] ------- [0:255 -1:-1 32 0] 
s 9.401054718 _2_ RTR  --- 52 MSVR 0 [0 0 0 0] ------- [2:255 -1:-1 32 0] 
r 9.402119385 _1_ RTR  --- 52 MSVR 0 [0 ffffffff 2 800] ------- [2:255 -1:-1 32 0] 
r 9.402119385 _3_ RTR  --- 52 MSVR 0 [0 ffffffff 2 800] ------- [2:255 -1:-1 32 0] 
s 9.938433114 _4_ RTR  --- 53 MSVR 0 [0 0 0 0] ------- [4:255 -1:-1 32 0] 
r 9.939157780 _3_ RTR  --- 53 MSVR 0 [0 ffffffff 4 800] ------- [4:255 -1:-1 32 0] 
r 9.939157780 _5_ RTR  --- 53 MSVR 0 [0 ffffffff 4 800] ------- [4:255 -1:-1 32 0] 
s 9.964624132 _1_ RTR  --- 54 MSVR 0 [0 0 0 0] ------- [1:255 -1:-1 32 0] 
r 9.965448732 _0_ RTR  --- 54 MSVR 0 [0 ffffffff 1 800] ------- [1:255 -1:-1 32 0] 
r 9.965448799 _2_ RTR  --- 54 MSVR 0 [0 ffffffff 1 800] ------- [1:255 -1:-1 32 0] 
s 10.000000000 _1_ AGT  --- 55 PBC 800 [0 0 0 0] ------- [1:0 4:0 32 4] 
r 10.000000000 _1_ RTR  --- 55 PBC 800 [0 0 0 0] ------- [1:0 4:0 32 4] 
s 10.000000000 _1_ AGT  --- 56 PBC 800 [0 0 0 0] ------- [1:0 3:0 32 3] 
r 10.000000000 _1_ RTR  --- 56 PBC 800 [0 0 0 0] ------- [1:0 3:0 32 3] 
s 10.000000000 _1_ AGT  --- 57 PBC 800 [0 0 0 0] ------- [1:0 2:0 32 2] 
r 10.000000000 _1_ RTR  --- 57 PBC 800 [0 0 0 0] ------- [1:0 2:0 32 2] 
s 10.000000000 _1_ RTR  --- 55 PBC 800 [0 0 0 0] ------- [1:0 4:0 31 2] 
s 10.000000000 _1_ RTR  --- 56 PBC 800 [0 0 0 0] ------- [1:0 3:0 31 2] 
D 10.000000000 _1_ IFQ  ARP 55 PBC 800 [0 0 1 800] ------- [1:0 4:0 31 2] 
s 10.000000000 _1_ RTR  --- 57 PBC 800 [0 0 0 0] ------- [1:0 2:0 31 2] 
D 10.000000000 _1_ IFQ  ARP 56 PBC 800 [0 0 1 800] ------- [1:0 3:0 31 2] 
r 10.012246667 _2_ AGT  --- 57 PBC 800 [13a 2 1 800] ------- [1:0 2:0 31 2] 
s 10.108070136 _3_ RTR  --- 58 MSVR 0 [0 0 0 0] ------- [3:255 -1:-1 32 0] 
r 10.108654803 _2_ RTR  --- 58 MSVR 0 [0 ffffffff 3 800] ------- [3:255 -1:-1 32 0] 
r 10.108654803 _4_ RTR  --- 58 MSVR 0 [0 ffffffff 3 800] ------- [3:255 -1:-1 32 0] 
s 10.433482289 _5_ RTR  --- 59 MSVR 0 [0 0 0 0] ------- [5:255 -1:-1 32 0] 
r 10.434426956 _4_ RTR  --- 59 MSVR 0 [0 ffffffff 5 800] ------- [5:255 -1:-1 32 0] 
s 10.449865640 _0_ RTR  --- 60 MSVR 0 [0 0 0 0] ------- [0:255 -1:-1 32 0] 
r 10.450810240 _1_ RTR  --- 60 MSVR 0 [0 ffffffff 0 800] ------- [0:255 -1:-1 32 0] 
s 10.520779888 _2_ RTR  --- 61 MSVR 0 [0 0 0 0] ------- [2:255 -1:-1 32 0] 
r 10.521664554 _1_ RTR  --- 61 MSVR 0 [0 ffffffff 2 800] ------- [2:255 -1:-1 32 0] 
r 10.521664554 _3_ RTR  --- 61 MSVR 0 [0 ffffffff 2 800] ------- [2:255 -1:-1 32 0] 
s 11.007094344 _1_ RTR  --- 62 MSVR 0 [0 0 0 0] ------- [1:255 -1:-1 32 0] 
r 11.008198944 _0_ RTR  --- 62 MSVR 0 [0 ffffffff 1 800] ------- [1:255 -1:-1 32 0] 
r 11.008199011 _2_ RTR  --- 62 MSVR 0 [0 ffffffff 1 800] ------- [1:255 -1:-1 32 0] 
s 11.131727728 _4_ RTR  --- 63 MSVR 0 [0 0 0 0] ------- [4:255 -1:-1 32 0] 
r 11.132432394 _3_ RTR  --- 63 MSVR 0 [0 ffffffff 4 800] ------- [4:255 -1:-1 32 0] 
r 11.132432394 _5_ RTR  --- 63 MSVR 0 [0 ffffffff 4 800] ------- [4:255 -1:-1 32 0] 
s 11.161220060 _3_ RTR  --- 64 MSVR 0 [0 0 0 0] ------- [3:255 -1:-1 32 0] 
r 11.161784726 _2_ RTR  --- 64 MSVR 0 [0 ffffffff 3 800] ------- [3:255 -1:-1 32 0] 
r 11.161784726 _4_ RTR  --- 64 MSVR 0 [0 ffffffff 3 800] ------- [3:255 -1:-1 32 0] 
s 11.454813254 _0_ RTR  --- 65 MSVR 0 [0 0 0 0] ------- [0:255 -1:-1 32 0] 
r 11.455377854 _1_ RTR  --- 65 MSVR 0 [0 ffffffff 0 800] ------- [0:255 -1:-1 32 0] 
s 11.563102741 _5_ RTR  --- 66 MSVR 0 [0 0 0 0] ------- [5:255 -1:-1 32 0] 
r 11.564227408 _4_ RTR  --- 66 MSVR 0 [0 ffffffff 5 800] ------- [5:255 -1:-1 32 0] 
s 11.750922063 _2_ RTR  --- 67 MSVR 0 [0 0 0 0] ------- [2:255 -1:-1 32 0] 
r 11.752066730 _1_ RTR  --- 67 MSVR 0 [0 ffffffff 2 800] ------- [2:255 -1:-1 32 0] 
r 11.752066730 _3_ RTR  --- 67 MSVR 0 [0 ffffffff 2 800] ------- [2:255 -1:-1 32 0] 
s 12.130424544 _1_ RTR  --- 68 MSVR 0 [0 0 0 0] ------- [1:255 -1:-1 32 0] 
r 12.131509144 _0_ RTR  --- 68 MSVR 0 [0 ffffffff 1 800] ------- [1:255 -1:-1 32 0] 
r 12.131509210 _2_ RTR  --- 68 MSVR 0 [0 ffffffff 1 800] ------- [1:255 -1:-1 32 0] 
s 12.307119287 _3_ RTR  --- 69 MSVR 0 [0 0 0 0] ------- [3:255 -1:-1 32 0] 
r 12.307923954 _2_ RTR  --- 69 MSVR 0 [0 ffffffff 3 800] ------- [3:255 -1:-1 32 0] 
r 12.307923954 _4_ RTR  --- 69 MSVR 0 [0 ffffffff 3 800] ------- [3:255 -1:-1 32 0] 
s 12.379564383 _4_ RTR  --- 70 MSVR 0 [0 0 0 0] ------- [4:255 -1:-1 32 0] 
r 12.380229049 _3_ RTR  --- 70 MSVR 0 [0 ffffffff 4 800] ------- [4:255 -1:-1 32 0] 
r 12.380229049 _5_ RTR  --- 70 MSVR 0 [0 ffffffff 4 800] ------- [4:255 -1:-1 32 0] 
s 12.628222177 _0_ RTR  --- 71 MSVR 0 [0 0 0 0] ------- [0:255 -1:-1 32 0] 
r 12.628786777 _1_ RTR  --- 71 MSVR 0 [0 ffffffff 0 800] ------- [0:255 -1:-1 32 0] 
s 12.718159149 _5_ RTR  --- 72 MSVR 0 [0 0 0 0] ------- [5:255 -1:-1 32 0] 
r 12.719223816 _4_ RTR  --- 72 MSVR 0 [0 ffffffff 5 800] ------- [5:255 -1:-1 32 0] 
s 12.872157835 _2_ RTR  --- 73 MSVR 0 [0 0 0 0] ------- [2:255 -1:-1 32 0] 
r 12.872722502 _1_ RTR  --- 73 MSVR 0 [0 ffffffff 2 800] ------- [2:255 -1:-1 32 0] 
r 12.872722502 _3_ RTR  --- 73 MSVR 0 [0 ffffffff 2 800] ------- [2:255 -1:-1 32 0] 
s 13.290417532 _1_ RTR  --- 74 MSVR 0 [0 0 0 0] ------- [1:255 -1:-1 32 0] 
r 13.291342132 _0_ RTR  --- 74 MSVR 0 [0 ffffffff 1 800] ------- [1:255 -1:-1 32 0] 
r 13.291342199 _2_ RTR  --- 74 MSVR 0 [0 ffffffff 1 800] ------- [1:255 -1:-1 32 0] 
s 13.333937009 _3_ RTR  --- 75 MSVR 0 [0 0 0 0] ------- [3:255 -1:-1 32 0] 
r 13.335001675 _2_ RTR  --- 75 MSVR 0 [0 ffffffff 3 800] ------- [3:255 -1:-1 32 0] 
r 13.335001675 _4_ RTR  --- 75 MSVR 0 [0 ffffffff 3 800] ------- [3:255 -1:-1 32 0] 
s 13.549346297 _4_ RTR  --- 76 MSVR 0 [0 0 0 0] ------- [4:255 -1:-1 32 0] 
r 13.550050964 _3_ RTR  --- 76 MSVR 0 [0 ffffffff 4 800] ------- [4:255 -1:-1 32 0] 
r 13.550050964 _5_ RTR  --- 76 MSVR 0 [0 ffffffff 4 800] ------- [4:255 -1:-1 32 0] 
s 13.795142383 _5_ RTR  --- 77 MSVR 0 [0 0 0 0] ------- [5:255 -1:-1 32 0] 
r 13.796247050 _4_ RTR  --- 77 MSVR 0 [0 ffffffff 5 800] ------- [5:255 -1:-1 32 0] 
s 13.868850219 _0_ RTR  --- 78 MSVR 0 [0 0 0 0] ------- [0:255 -1:-1 32 0] 
r 13.869894819 _1_ RTR  --- 78 MSVR 0 [0 ffffffff 0 800] ------- [0:255 -1:-1 32 0] 
s 13.999741171 _2_ RTR  --- 79 MSVR 0 [0 0 0 0] ------- [2:255 -1:-1 32 0] 
r 14.000305837 _1_ RTR  --- 79 MSVR 0 [0 ffffffff 2 800] ------- [2:255 -1:-1 32 0] 
r 14.000305837 _3_ RTR  --- 79 MSVR 0 [0 ffffffff 2 800] ------- [2:255 -1:-1 32 0] 
s 14.316230300 _1_ RTR  --- 80 MSVR 0 [0 0 0 0] ------- [1:255 -1:-1 32 0] 
r 14.317354900 _0_ RTR  --- 80 MSVR 0 [0 ffffffff 1 800] ------- [1:255 -1:-1 32 0] 
r 14.317354967 _2_ RTR  --- 80 MSVR 0 [0 ffffffff 1 800] ------- [1:255 -1:-1 32 0] 
s 14.411462784 _3_ RTR  --- 81 MSVR 0 [0 0 0 0] ------- [3:255 -1:-1 32 0] 
r 14.412367451 _2_ RTR  --- 81 MSVR 0 [0 ffffffff 3 800] ------- [3:255 -1:-1 32 0] 
r 14.412367451 _4_ RTR  --- 81 MSVR 0 [0 ffffffff 3 800] ------- [3:255 -1:-1 32 0] 
s 14.685291725 _4_ RTR  --- 82 MSVR 0 [0 0 0 0] ------- [4:255 -1:-1 32 0] 
r 14.686336392 _3_ RTR  --- 82 MSVR 0 [0 ffffffff 4 800] ------- [4:255 -1:-1 32 0] 
r 14.686336392 _5_ RTR  --- 82 MSVR 0 [0 ffffffff 4 800] ------- [4:255 -1:-1 32 0] 
s 14.997439730 _5_ RTR  --- 83 MSVR 0 [0 0 0 0] ------- [5:255 -1:-1 32 0] 
r 14.998524396 _4_ RTR  --- 83 MSVR 0 [0 ffffffff 5 800] ------- [5:255 -1:-1 32 0] 
s 15.024449255 _0_ RTR  --- 84 MSVR 0 [0 0 0 0] ------- [0:255 -1:-1 32 0] 
r 15.025093855 _1_ RTR  --- 84 MSVR 0 [0 ffffffff 0 800] ------- [0:255 -1:-1 32 0] 
s 15.045533393 _2_ RTR  --- 85 MSVR 0 [0 0 0 0] ------- [2:255 -1:-1 32 0] 
r 15.046098060 _1_ RTR  --- 85 MSVR 0 [0 ffffffff 2 800] ------- [2:255 -1:-1 32 0] 
r 15.046098060 _3_ RTR  --- 85 MSVR 0 [0 ffffffff 2 800] ------- [2:255 -1:-1 32 0] 
s 15.461677985 _3_ RTR  --- 86 MSVR 0 [0 0 0 0] ------- [3:255 -1:-1 32 0] 
r 15.462562651 _2_ RTR  --- 86 MSVR 0 [0 ffffffff 3 800] ------- [3:255 -1:-1 32 0] 
r 15.462562651 _4_ RTR  --- 86 MSVR 0 [0 ffffffff 3 800] ------- [3:255 -1:-1 32 0] 
s 15.527299590 _1_ RTR  --- 87 MSVR 0 [0 0 0 0] ------- [1:255 -1:-1 32 0] 
r 15.527924190 _0_ RTR  --- 87 MSVR 0 [0 ffffffff 1 800] ------- [1:255 -1:-1 32 0] 
r 15.527924256 _2_ RTR  --- 87 MSVR 0 [0 ffffffff 1 800] ------- [1:255 -1:-1 32 0] 
s 15.892929796 _4_ RTR  --- 88 MSVR 0 [0 0 0 0] ------- [4:255 -1:-1 32 0] 
r 15.893894462 _3_ RTR  --- 88 MSVR 0 [0 ffffffff 4 800] ------- [4:255 -1:-1 32 0] 
r 15.893894462 _5_ RTR  --- 88 MSVR 0 [0 ffffffff 4 800] ------- [4:255 -1:-1 32 0] 
s 16.060515270 _5_ RTR  --- 89 MSVR 0 [0 0 0 0] ------- [5:255 -1:-1 32 0] 
r 16.061539937 _4_ RTR  --- 89 MSVR 0 [0 ffffffff 5 800] ------- [5:255 -1:-1 32 0] 
s 16.147069529 _0_ RTR  --- 90 MSVR 0 [0 0 0 0] ------- [0:255 -1:-1 32 0] 
r 16.147634129 _1_ RTR  --- 90 MSVR 0 [0 ffffffff 0 800] ------- [0:255 -1:-1 32 0] 
s 16.255566464 _2_ RTR  --- 91 MSVR 0 [0 0 0 0] ------- [2:255 -1:-1 32 0] 
r 16.256691131 _1_ RTR  --- 91 MSVR 0 [0 ffffffff 2 800] ------- [2:255 -1:-1 32 0] 
r 16.256691131 _3_ RTR  --- 91 MSVR 0 [0 ffffffff 2 800] ------- [2:255 -1:-1 32 0] 
s 16.530271778 _3_ RTR  --- 92 MSVR 0 [0 0 0 0] ------- [3:255 -1:-1 32 0] 
r 16.531176445 _2_ RTR  --- 92 MSVR 0 [0 ffffffff 3 800] ------- [3:255 -1:-1 32 0] 
r 16.531176445 _4_ RTR  --- 92 MSVR 0 [0 ffffffff 3 800] ------- [3:255 -1:-1 32 0] 
s 16.637794518 _1_ RTR  --- 93 MSVR 0 [0 0 0 0] ------- [1:255 -1:-1 32 0] 
r 16.638719118 _0_ RTR  --- 93 MSVR 0 [0 ffffffff 1 800] ------- [1:255 -1:-1 32 0] 
r 16.638719184 _2_ RTR  --- 93 MSVR 0 [0 ffffffff 1 800] ------- [1:255 -1:-1 32 0] 
s 16.908127704 _4_ RTR  --- 94 MSVR 0 [0 0 0 0] ------- [4:255 -1:-1 32 0] 
r 16.908912371 _3_ RTR  --- 94 MSVR 0 [0 ffffffff 4 800] ------- [4:255 -1:-1 32 0] 
r 16.908912371 _5_ RTR  --- 94 MSVR 0 [0 ffffffff 4 800] ------- [4:255 -1:-1 32 0] 
s 17.225247640 _0_ RTR  --- 95 MSVR 0 [0 0 0 0] ------- [0:255 -1:-1 32 0] 
r 17.225852240 _1_ RTR  --- 95 MSVR 0 [0 ffffffff 0 800] ------- [0:255 -1:-1 32 0] 
s 17.290041875 _2_ RTR  --- 96 MSVR 0 [0 0 0 0] ------- [2:255 -1:-1 32 0] 
r 17.291066542 _1_ RTR  --- 96 MSVR 0 [0 ffffffff 2 800] ------- [2:255 -1:-1 32 0] 
r 17.291066542 _3_ RTR  --- 96 MSVR 0 [0 ffffffff 2 800] ------- [2:255 -1:-1 32 0] 
s 17.296295362 _5_ RTR  --- 97 MSVR 0 [0 0 0 0] ------- [5:255 -1:-1 32 0] 
r 17.297380029 _4_ RTR  --- 97 MSVR 0 [0 ffffffff 5 800] ------- [5:255 -1:-1 32 0] 
s 17.624509718 _3_ RTR  --- 98 MSVR 0 [0 0 0 0] ------- [3:255 -1:-1 32 0] 
r 17.625354385 _2_ RTR  --- 98 MSVR 0 [0 ffffffff 3 800] ------- [3:255 -1:-1 32 0] 
r 17.625354385 _4_ RTR  --- 98 MSVR 0 [0 ffffffff 3 800] ------- [3:255 -1:-1 32 0] 
s 17.732136998 _1_ RTR  --- 99 MSVR 0 [0 0 0 0] ------- [1:255 -1:-1 32 0] 
r 17.732961598 _0_ RTR  --- 99 MSVR 0 [0 ffffffff 1 800] ------- [1:255 -1:-1 32 0] 
r 17.732961665 _2_ RTR  --- 99 MSVR 0 [0 ffffffff 1 800] ------- [1:255 -1:-1 32 0] 
s 17.950241827 _4_ RTR  --- 100 MSVR 0 [0 0 0 0] ------- [4:255 -1:-1 32 0] 
r 17.951166494 _3_ RTR  --- 100 MSVR 0 [0 ffffffff 4 800] ------- [4:255 -1:-1 32 0] 
r 17.951166494 _5_ RTR  --- 100 MSVR 0 [0 ffffffff 4 800] ------- [4:255 -1:-1 32 0] 
s 18.351964374 _0_ RTR  --- 101 MSVR 0 [0 0 0 0] ------- [0:255 -1:-1 32 0] 
r 18.352868974 _1_ RTR  --- 101 MSVR 0 [0 ffffffff 0 800] ------- [0:255 -1:-1 32 0] 
s 18.408342358 _5_ RTR  --- 102 MSVR 0 [0 0 0 0] ------- [5:255 -1:-1 32 0] 
r 18.409007025 _4_ RTR  --- 102 MSVR 0 [0 ffffffff 5 800] ------- [5:255 -1:-1 32 0] 
s 18.448889026 _2_ RTR  --- 103 MSVR 0 [0 0 0 0] ------- [2:255 -1:-1 32 0] 
r 18.449933693 _1_ RTR  --- 103 MSVR 0 [0 ffffffff 2 800] ------- [2:255 -1:-1 32 0] 
r 18.449933693 _3_ RTR  --- 103 MSVR 0 [0 ffffffff 2 800] ------- [2:255 -1:-1 32 0] 
s 18.771817194 _3_ RTR  --- 104 MSVR 0 [0 0 0 0] ------- [3:255 -1:-1 32 0] 
r 18.772641861 _2_ RTR  --- 104 MSVR 0 [0 ffffffff 3 800] ------- [3:255 -1:-1 32 0] 
r 18.772641861 _4_ RTR  --- 104 MSVR 0 [0 ffffffff 3 800] ------- [3:255 -1:-1 32 0] 
s 18.796571724 _1_ RTR  --- 105 MSVR 0 [0 0 0 0] ------- [1:255 -1:-1 32 0] 
r 18.797556324 _0_ RTR  --- 105 MSVR 0 [0 ffffffff 1 800] ------- [1:255 -1:-1 32 0] 
r 18.797556391 _2_ RTR  --- 105 MSVR 0 [0 ffffffff 1 800] ------- [1:255 -1:-1 32 0] 
s 18.969405941 _4_ RTR  --- 106 MSVR 0 [0 0 0 0] ------- [4:255 -1:-1 32 0] 
r 18.970070607 _3_ RTR  --- 106 MSVR 0 [0 ffffffff 4 800] ------- [4:255 -1:-1 32 0] 
r 18.970070607 _5_ RTR  --- 106 MSVR 0 [0 ffffffff 4 800] ------- [4:255 -1:-1 32 0] 
s 19.453955149 _5_ RTR  --- 107 MSVR 0 [0 0 0 0] ------- [5:255 -1:-1 32 0] 
r 19.454619816 _4_ RTR  --- 107 MSVR 0 [0 ffffffff 5 800] ------- [5:255 -1:-1 32 0] 
s 19.595018867 _0_ RTR  --- 108 MSVR 0 [0 0 0 0] ------- [0:255 -1:-1 32 0] 
r 19.596103467 _1_ RTR  --- 108 MSVR 0 [0 ffffffff 0 800] ------- [0:255 -1:-1 32 0] 
s 19.627698501 _2_ RTR  --- 109 MSVR 0 [0 0 0 0] ------- [2:255 -1:-1 32 0] 
r 19.628743168 _1_ RTR  --- 109 MSVR 0 [0 ffffffff 2 800] ------- [2:255 -1:-1 32 0] 
r 19.628743168 _3_ RTR  --- 109 MSVR 0 [0 ffffffff 2 800] ------- [2:255 -1:-1 32 0] 
s 19.818966324 _3_ RTR  --- 110 MSVR 0 [0 0 0 0] ------- [3:255 -1:-1 32 0] 
r 19.820110991 _2_ RTR  --- 110 MSVR 0 [0 ffffffff 3 800] ------- [3:255 -1:-1 32 0] 
r 19.820110991 _4_ RTR  --- 110 MSVR 0 [0 ffffffff 3 800] ------- [3:255 -1:-1 32 0] 
s 19.982085469 _1_ RTR  --- 111 MSVR 0 [0 0 0 0] ------- [1:255 -1:-1 32 0] 
r 19.982670069 _0_ RTR  --- 111 MSVR 0 [0 ffffffff 1 800] ------- [1:255 -1:-1 32 0] 
r 19.982670136 _2_ RTR  --- 111 MSVR 0 [0 ffffffff 1 800] ------- [1:255 -1:-1 32 0] 
s 20.080507589 _4_ RTR  --- 112 MSVR 0 [0 0 0 0] ------- [4:255 -1:-1 32 0] 
r 20.081292255 _3_ RTR  --- 112 MSVR 0 [0 ffffffff 4 800] ------- [4:255 -1:-1 32 0] 
r 20.081292255 _5_ RTR  --- 112 MSVR 0 [0 ffffffff 4 800] ------- [4:255 -1:-1 32 0] 
s 20.637938058 _5_ RTR  --- 113 MSVR 0 [0 0 0 0] ------- [5:255 -1:-1 32 0] 
r 20.639082725 _4_ RTR  --- 113 MSVR 0 [0 ffffffff 5 800] ------- [5:255 -1:-1 32 0] 
s 20.740162366 _2_ RTR  --- 114 MSVR 0 [0 0 0 0] ------- [2:255 -1:-1 32 0] 
r 20.740867032 _1_ RTR  --- 114 MSVR 0 [0 ffffffff 2 800] ------- [2:255 -1:-1 32 0] 
r 20.740867032 _3_ RTR  --- 114 MSVR 0 [0 ffffffff 2 800] ------- [2:255 -1:-1 32 0] 
s 20.741377391 _0_ RTR  --- 115 MSVR 0 [0 0 0 0] ------- [0:255 -1:-1 32 0] 
r 20.742421991 _1_ RTR  --- 115 MSVR 0 [0 ffffffff 0 800] ------- [0:255 -1:-1 32 0] 
s 20.831095392 _3_ RTR  --- 116 MSVR 0 [0 0 0 0] ------- [3:255 -1:-1 32 0] 
r 20.831780059 _2_ RTR  --- 116 MSVR 0 [0 ffffffff 3 800] ------- [3:255 -1:-1 32 0] 
r 20.831780059 _4_ RTR  --- 116 MSVR 0 [0 ffffffff 3 800] ------- [3:255 -1:-1 32 0] 
s 21.082192982 _4_ RTR  --- 117 MSVR 0 [0 0 0 0] ------- [4:255 -1:-1 32 0] 
r 21.083237649 _3_ RTR  --- 117 MSVR 0 [0 ffffffff 4 800] ------- [4:255 -1:-1 32 0] 
r 21.083237649 _5_ RTR  --- 117 MSVR 0 [0 ffffffff 4 800] ------- [4:255 -1:-1 32 0] 
s 21.126232972 _1_ RTR  --- 118 MSVR 0 [0 0 0 0] ------- [1:255 -1:-1 32 0] 
r 21.126997572 _0_ RTR  --- 118 MSVR 0 [0 ffffffff 1 800] ------- [1:255 -1:-1 32 0] 
r 21.126997638 _2_ RTR  --- 118 MSVR 0 [0 ffffffff 1 800] ------- [1:255 -1:-1 32 0] 
s 21.736598429 _5_ RTR  --- 119 MSVR 0 [0 0 0 0] ------- [5:255 -1:-1 32 0] 
r 21.737763095 _4_ RTR  --- 119 MSVR 0 [0 ffffffff 5 800] ------- [5:255 -1:-1 32 0] 
s 21.791867705 _0_ RTR  --- 120 MSVR 0 [0 0 0 0] ------- [0:255 -1:-1 32 0] 
r 21.792992305 _1_ RTR  --- 120 MSVR 0 [0 ffffffff 0 800] ------- [0:255 -1:-1 32 0] 
s 21.979587437 _2_ RTR  --- 121 MSVR 0 [0 0 0 0] ------- [2:255 -1:-1 32 0] 
r 21.980412104 _1_ RTR  --- 121 MSVR 0 [0 ffffffff 2 800] ------- [2:255 -1:-1 32 0] 
r 21.980412104 _3_ RTR  --- 121 MSVR 0 [0 ffffffff 2 800] ------- [2:255 -1:-1 32 0] 
s 22.076351539 _3_ RTR  --- 122 MSVR 0 [0 0 0 0] ------- [3:255 -1:-1 32 0] 
r 22.077296206 _2_ RTR  --- 122 MSVR 0 [0 ffffffff 3 800] ------- [3:255 -1:-1 32 0] 
r 22.077296206 _4_ RTR  --- 122 MSVR 0 [0 ffffffff 3 800] ------- [3:255 -1:-1 32 0] 
s 22.142074004 _1_ RTR  --- 123 MSVR 0 [0 0 0 0] ------- [1:255 -1:-1 32 0] 
r 22.143158604 _0_ RTR  --- 123 MSVR 0 [0 ffffffff 1 800] ------- [1:255 -1:-1 32 0] 
r 22.143158671 _2_ RTR  --- 123 MSVR 0 [0 ffffffff 1 800] ------- [1:255 -1:-1 32 0] 
s 22.218402686 _4_ RTR  --- 124 MSVR 0 [0 0 0 0] ------- [4:255 -1:-1 32 0] 
r 22.219407353 _3_ RTR  --- 124 MSVR 0 [0 ffffffff 4 800] ------- [4:255 -1:-1 32 0] 
r 22.219407353 _5_ RTR  --- 124 MSVR 0 [0 ffffffff 4 800] ------- [4:255 -1:-1 32 0] 
s 22.861363688 _5_ RTR  --- 125 MSVR 0 [0 0 0 0] ------- [5:255 -1:-1 32 0] 
r 22.861928355 _4_ RTR  --- 125 MSVR 0 [0 ffffffff 5 800] ------- [5:255 -1:-1 32 0] 
s 23.033487977 _0_ RTR  --- 126 MSVR 0 [0 0 0 0] ------- [0:255 -1:-1 32 0] 
r 23.034432577 _1_ RTR  --- 126 MSVR 0 [0 ffffffff 0 800] ------- [0:255 -1:-1 32 0] 
s 23.050981728 _2_ RTR  --- 127 MSVR 0 [0 0 0 0] ------- [2:255 -1:-1 32 0] 
r 23.052026395 _1_ RTR  --- 127 MSVR 0 [0 ffffffff 2 800] ------- [2:255 -1:-1 32 0] 
r 23.052026395 _3_ RTR  --- 127 MSVR 0 [0 ffffffff 2 800] ------- [2:255 -1:-1 32 0] 
s 23.258008285 _3_ RTR  --- 128 MSVR 0 [0 0 0 0] ------- [3:255 -1:-1 32 0] 
r 23.258692952 _2_ RTR  --- 128 MSVR 0 [0 ffffffff 3 800] ------- [3:255 -1:-1 32 0] 
r 23.258692952 _4_ RTR  --- 128 MSVR 0 [0 ffffffff 3 800] ------- [3:255 -1:-1 32 0] 
s 23.260291672 _1_ RTR  --- 129 MSVR 0 [0 0 0 0] ------- [1:255 -1:-1 32 0] 
r 23.260996272 _0_ RTR  --- 129 MSVR 0 [0 ffffffff 1 800] ------- [1:255 -1:-1 32 0] 
r 23.260996339 _2_ RTR  --- 129 MSVR 0 [0 ffffffff 1 800] ------- [1:255 -1:-1 32 0] 
s 23.304427986 _4_ RTR  --- 130 MSVR 0 [0 0 0 0] ------- [4:255 -1:-1 32 0] 
r 23.305332653 _3_ RTR  --- 130 MSVR 0 [0 ffffffff 4 800] ------- [4:255 -1:-1 32 0] 
r 23.305332653 _5_ RTR  --- 130 MSVR 0 [0 ffffffff 4 800] ------- [4:255 -1:-1 32 0] 
s 24.104534340 _5_ RTR  --- 131 MSVR 0 [0 0 0 0] ------- [5:255 -1:-1 32 0] 
r 24.105379006 _4_ RTR  --- 131 MSVR 0 [0 ffffffff 5 800] ------- [5:255 -1:-1 32 0] 
s 24.211029577 _0_ RTR  --- 132 MSVR 0 [0 0 0 0] ------- [0:255 -1:-1 32 0] 
r 24.211674177 _1_ RTR  --- 132 MSVR 0 [0 ffffffff 0 800] ------- [0:255 -1:-1 32 0] 
s 24.271183871 _2_ RTR  --- 133 MSVR 0 [0 0 0 0] ------- [2:255 -1:-1 32 0] 
r 24.271968538 _1_ RTR  --- 133 MSVR 0 [0 ffffffff 2 800] ------- [2:255 -1:-1 32 0] 
r 24.271968538 _3_ RTR  --- 133 MSVR 0 [0 ffffffff 2 800] ------- [2:255 -1:-1 32 0] 
s 24.408508769 _3_ RTR  --- 134 MSVR 0 [0 0 0 0] ------- [3:255 -1:-1 32 0] 
r 24.409413436 _2_ RTR  --- 134 MSVR 0 [0 ffffffff 3 800] ------- [3:255 -1:-1 32 0] 
r 24.409413436 _4_ RTR  --- 134 MSVR 0 [0 ffffffff 3 800] ------- [3:255 -1:-1 32 0] 
s 24.441546152 _4_ RTR  --- 135 MSVR 0 [0 0 0 0] ------- [4:255 -1:-1 32 0] 
r 24.442410819 _3_ RTR  --- 135 MSVR 0 [0 ffffffff 4 800] ------- [4:255 -1:-1 32 0] 
r 24.442410819 _5_ RTR  --- 135 MSVR 0 [0 ffffffff 4 800] ------- [4:255 -1:-1 32 0] 
s 24.491140803 _1_ RTR  --- 136 MSVR 0 [0 0 0 0] ------- [1:255 -1:-1 32 0] 
r 24.492085403 _0_ RTR  --- 136 MSVR 0 [0 ffffffff 1 800] ------- [1:255 -1:-1 32 0] 
r 24.492085469 _2_ RTR  --- 136 MSVR 0 [0 ffffffff 1 800] ------- [1:255 -1:-1 32 0] 